# vtk DataFile Version 4.0
vtk output
ASCII
DATASET POLYDATA
POINTS 24582 float
-8 -60 -62.3984 -8 -60.3984 -62 -6.33308 -60 -62 
-10 -60 -62.0774 -10 -60.0774 -62 -10.1628 -60 -62 
-6 -58 -62.7058 -6 -59.8261 -62 -4.87148 -58 -62 
-8 -58 -63 -10 -58 -62.9141 -12 -58.7795 -62 
-12 -58 -62.4638 -13.1733 -58 -62 -4 -56 -62.0774 
-4 -56.1969 -62 -3.92261 -56 -62 -6 -56 -62.9141 
-8 -56 -63 -10 -56 -63 -12 -56 -62.9141 
-14 -57.4003 -62 -14 -56 -62.7058 -16 -56 -62.205 
-16 -56.3984 -62 -16.3984 -56 -62 -4 -55.0606 -62 
-4.13552 -54 -62 -6 -54 -62.884 -8 -54 -63 
-10 -54 -63.0859 -12 -54 -63.1951 -14 -54 -63.0859 
-16 -54 -62.7058 -17.3241 -54 -62 -6 -52 -62.1528 
-5.81206 -52 -62 -8 -52 -62.884 -10 -52 -63.2942 
-12 -52 -63.7381 -14 -52 -63.2942 -16 -52 -62.9141 
-18 -52.492 -62 -18 -52 -62.1473 -18.1665 -52 -62 
-6 -51.8121 -62 -7.81206 -50 -62 -8 -50 -62.1528 
-10 -50 -63.1844 -12 -50 -63.7381 -14 -50 -63.2942 
-16 -50 -62.9141 -18 -50 -62.0774 -18.0774 -50 -62 
-8 -49.8121 -62 -9.73174 -48 -62 -10 -48 -62.2389 
-12 -48 -63.0828 -14 -48 -63 -16 -48 -62.4638 
-16.7795 -48 -62 -18 -49.8372 -62 -10 -47.7193 -62 
-11.8029 -46 -62 -12 -46 -62.1473 -14 -46 -62.3394 
-14.8267 -46 -62 -16 -47 -62 -12 -45.8121 -62 
-14 -45.5167 -62 -26 -68 -60.3394 -26 -68.5997 -60 
-25.1733 -68 -60 -28 -68 -60.5997 -28 -68.9523 -60 
-30 -68 -60.5997 -30 -68.8624 -60 -32 -68 -60.2835 
-32 -68.3702 -60 -32.5694 -68 -60 -24 -66 -60.4638 
-24 -67 -60 -23 -66 -60 -26 -66 -60.9141 
-28 -66 -61 -30 -66 -61 -32 -66 -60.9141 
-34 -66.8228 -60 -34 -66 -60.4638 -34.8228 -66 -60 
-22 -64 -60.4638 -22 -65 -60 -21 -64 -60 
-24 -64 -60.9141 -26 -64 -61 -28 -64 -61 
-30 -64 -61 -32 -64 -61 -34 -64 -60.9141 
-36 -64.7535 -60 -36 -64 -60.4141 -36.7535 -64 -60 
-20 -62 -60.4638 -20 -63 -60 -18.8267 -62 -60 
-22 -62 -60.9141 -24 -62 -61 -26 -62 -61 
-28 -62 -61 -30 -62 -61 -32 -62 -61 
-34 -62 -61 -36 -62 -60.9141 -38 -62.66 -60 
-38 -62 -60.3394 -38.4833 -62 -60 -4 -60 -60.4211 
-4 -60.4582 -60 -3.56113 -60 -60 -6 -60 -61.8911 
-6 -61.2939 -60 -8 -61.4003 -60 -10 -61.3159 -60 
-12 -60 -61.14 -12 -61.1157 -60 -14 -60 -60.6841 
-14 -61 -60 -16 -60 -60.5997 -16 -61 -60 
-18 -60 -60.7058 -18 -61.4003 -60 -20 -60 -60.9141 
-22 -60 -61 -24 -60 -61 -26 -60 -61 
-28 -60 -61 -30 -60 -61 -32 -60 -61 
-34 -60 -61 -36 -60 -61 -38 -60 -60.5997 
-38.8267 -60 -60 -4 -58 -61.2702 -2.89211 -58 -60 
-14 -58 -61.6606 -16 -58 -61.2942 -18 -58 -61.0859 
-20 -58 -61 -22 -58 -61 -24 -58 -61 
-26 -58 -61 -28 -58 -61 -30 -58 -61 
-32 -58 -61 -34 -58 -61 -36 -58 -61 
-38 -58 -60.5997 -38.8267 -58 -60 -2.68415 -56 -60 
-18 -56 -61.2942 -20 -56 -61 -22 -56 -61 
-24 -56 -61 -26 -56 -61 -28 -56 -61 
-30 -56 -61 -32 -56 -61 -34 -56 -61 
-36 -56 -61 -38 -56 -60.5563 -38.7091 -56 -60 
-4 -54 -61.8597 -3 -54 -60 -18 -54 -61.5792 
-20 -54 -60.791 -22 -54 -60.5997 -24 -54 -60.5997 
-26 -54 -60.5997 -28 -54 -60.7058 -30 -54 -60.9141 
-32 -54 -60.9141 -34 -54 -60.7058 -36 -54 -60.5563 
-37.5863 -54 -60 -38 -54.4137 -60 -4 -52.6502 -60 
-4.57038 -52 -60 -20 -52 -60.0141 -20.0312 -52 -60 
-22 -53 -60 -24 -53 -60 -26 -53 -60 
-28 -52.5997 -60 -29 -52 -60 -30 -52 -60.3394 
-32 -52 -60.3394 -33 -52 -60 -34 -52.5997 -60 
-36 -53.1889 -60 -6 -50.5704 -60 -6.57038 -50 -60 
-19.5131 -50 -60 -20 -51.9545 -60 -30 -51.4003 -60 
-32 -51.4003 -60 -8 -48.5704 -60 -8.57038 -48 -60 
-18 -48 -61.14 -19.2617 -48 -60 -10 -46.2807 -60 
-10.2298 -46 -60 -16 -46 -61.5362 -18 -46 -60.6841 
-19.0477 -46 -60 -12 -44 -60.4211 -11.5418 -44 -60 
-14 -44 -60.8921 -16 -44 -60.6418 -17.9688 -44 -60 
-18 -44.0284 -60 -12 -43.5611 -60 -14 -43.0366 -60 
-16 -43.2419 -60 -24 -72 -58.3394 -24 -72.5997 -58 
-23 -72 -58 -26 -72 -58.5997 -26 -73 -58 
-28 -72 -58.3394 -28 -72.5997 -58 -29 -72 -58 
-18 -70 -58.3394 -18 -70.5068 -58 -17.34 -70 -58 
-20 -70 -58.5997 -20 -70.9523 -58 -22 -70 -58.7058 
-22 -71.4003 -58 -24 -70 -59 -26 -70 -59.2942 
-28 -70 -59.3159 -30 -71.5167 -58 -30 -70 -59.1079 
-32 -70 -58.6235 -32 -70.7787 -58 -33.332 -70 -58 
-16 -68 -58.2835 -16 -68.5694 -58 -15.6298 -68 -58 
-18 -68 -58.9141 -20 -68 -59 -22 -68 -59.0859 
-24 -68 -59.5362 -34 -68 -59.2474 -34 -69.6127 -58 
-36 -68 -58.2842 -36 -68.4684 -58 -36.4684 -68 -58 
-16 -66 -58.7058 -14.8166 -66 -58 -18 -66 -59 
-20 -66 -59.0859 -22 -66 -59.5362 -36 -66 -59.2474 
-37.7928 -66 -58 -14 -64 -58.4141 -14 -64.8648 -58 
-13.2465 -64 -58 -16 -64 -58.9141 -18 -64 -59.0859 
-20 -64 -59.5362 -38 -64 -59.2474 -38 -65.7928 -58 
-40 -64 -58.2214 -40 -64.3293 -58 -40.3293 -64 -58 
-4 -62 -58.2072 -4 -62.1421 -58 -3.80292 -62 -58 
-6 -62 -58.9523 -6 -62.5997 -58 -8 -62 -59 
-8 -62.5997 -58 -10 -62 -59 -10 -62.6841 -58 
-12 -62 -59.1157 -12 -63.184 -58 -14 -62 -59.3159 
-16 -62 -59.4003 -18 -62 -59.6606 -40 -62 -58.8921 
-41.1376 -62 -58 -2 -60 -58.1971 -2 -60.1971 -58 
-1.8579 -60 -58 -40 -60 -59 -41.1733 -60 -58 
-2 -58 -58.8624 -1.40028 -58 -58 -40 -58 -59 
-41.1733 -58 -58 -2 -56 -58.9523 -1.40028 -56 -58 
-40 -56 -58.7298 -40.8715 -56 -58 -2 -54 -58.2332 
-1.8579 -54 -58 -38 -54 -59.7643 -39.6127 -54 -58 
-40 -54.6189 -58 -2 -53.8029 -58 -4 -52 -59 
-3.42962 -52 -58 -22 -52 -59.4003 -24 -52 -59.4003 
-26 -52 -59.4003 -28 -52 -59.6606 -34 -52 -59.6606 
-36 -52 -59.1079 -37.7795 -52 -58 -38 -52.2072 -58 
-4 -51.4296 -58 -6 -50 -59 -5.42962 -50 -58 
-20 -50 -59.5484 -22 -50 -59 -24 -50 -59 
-26 -50 -59 -28 -50 -59.0859 -30 -50 -59.2942 
-32 -50 -59.2942 -34 -50 -59.0859 -36 -50 -58.5997 
-37.1229 -50 -58 -6 -49.4296 -58 -8 -48 -59 
-7.42962 -48 -58 -20 -48 -59.4437 -22 -48 -59 
-24 -48 -59 -26 -48 -59 -28 -48 -59 
-30 -48 -58.9141 -32 -48 -58.8049 -34 -48 -58.9141 
-36 -48 -58.7058 -38 -48.3657 -58 -38 -48 -58.1211 
-40 -48 -58.0313 -40 -48.0594 -58 -40.1322 -48 -58 
-8 -47.3498 -58 -10 -46 -59.6707 -9 -46 -58 
-20 -46 -59.4003 -22 -46 -59 -24 -46 -58.9141 
-26 -46 -58.7058 -28 -46 -58.5997 -30 -46 -58.3394 
-32 -46 -58.1211 -34 -46 -58.7058 -36 -46 -58.884 
-38 -46 -58.6877 -40 -46 -58.7078 -42 -47.1824 -58 
-42 -46 -58.5563 -43.2047 -46 -58 -10 -44 -58.2072 
-9.8579 -44 -58 -18 -44 -59.9859 -20 -44 -58.8921 
-22 -44 -58.5997 -24 -44 -58.3394 -25 -44 -58 
-26 -44.5997 -58 -28 -45 -58 -30 -45.4003 -58 
-32 -45.7024 -58 -33.5347 -44 -58 -34 -44 -58.205 
-36 -44 -58.4516 -37.9545 -44 -58 -38 -44.028 -58 
-40 -44.182 -58 -42 -44.2285 -58 -10 -43.8029 -58 
-12 -42 -58.2807 -11.7193 -42 -58 -14 -42 -58.9634 
-16 -42 -58.7298 -17.6452 -42 -58 -18 -42.1665 -58 
-20 -42.8111 -58 -22 -43 -58 -24 -43.4003 -58 
-34 -43.6262 -58 -36 -43.4127 -58 -12 -41.7786 -58 
-14 -41.1079 -58 -16 -41.2702 -58 -20 -76 -56.1421 
-20 -76.1971 -56 -19.7668 -76 -56 -22 -76 -56.5997 
-22 -76.8267 -56 -24 -76 -56.5563 -24 -76.7091 -56 
-26 -76 -56.4516 -26 -76.4869 -56 -28 -76 -56.3984 
-28 -76.3984 -56 -30 -76 -56.0774 -30 -76.0774 -56 
-30.1387 -76 -56 -20 -74 -56.7058 -18.3984 -74 -56 
-22 -74 -57.0859 -24 -74 -57.2942 -26 -74 -57.4003 
-28 -74 -57.2942 -30 -74 -57 -32 -74.6344 -56 
-32 -74 -56.4141 -32.8648 -74 -56 -16 -72 -56.2842 
-16 -72.4973 -56 -15.5027 -72 -56 -18 -72 -57 
-18 -73.6707 -56 -20 -72 -57.3159 -22 -72 -57.6606 
-30 -72 -57.6606 -32 -72 -57.209 -34 -73.2213 -56 
-34 -72 -56.791 -36 -72 -56.2835 -36 -72.3702 -56 
-36.5694 -72 -56 -16 -70 -57.2474 -14.3873 -70 -56 
-34 -70 -57.7165 -36 -70 -57.209 -38 -70.8849 -56 
-38 -70 -56.5469 -38.8849 -70 -56 -14 -68 -56.6235 
-14 -69.332 -56 -13.1834 -68 -56 -38 -68 -57.209 
-40 -68.5694 -56 -40 -68 -56.2835 -40.3873 -68 -56 
-14 -66 -57.3765 -12.3702 -66 -56 -38 -66 -57.8579 
-40 -66 -57 -41.6707 -66 -56 -12 -64 -57.1308 
-12 -65.5315 -56 -10.2566 -64 -56 -42 -64 -57 
-42 -65.6707 -56 -43.8597 -64 -56 -4 -63 -56 
-2.70708 -62 -56 -6 -63.4003 -56 -8 -63.4436 -56 
-10 -63.8527 -56 -42 -62 -57.4003 -44 -63.7088 -56 
-44 -62 -56.4516 -44.4869 -62 -56 -2 -61.1834 -56 
-1.29415 -60 -56 -42 -60 -57.4003 -44 -60 -56.5563 
-44.7091 -60 -56 -1 -58 -56 -42 -58 -57.4003 
-44 -58 -56.5997 -44.8267 -58 -56 -1 -56 -56 
-42 -56 -57.2942 -44 -56 -56.5997 -44.8267 -56 -56 
-1.29415 -54 -56 -40 -54 -57.7066 -42 -54 -57.0859 
-44 -54 -56.5997 -44.8267 -54 -56 -2 -52.8166 -56 
-2.62347 -52 -56 -38 -52 -57.8527 -40 -52 -57.116 
-42 -52 -56.9141 -44 -52 -56.2835 -44.3702 -52 -56 
-4 -50.5704 -56 -4.57038 -50 -56 -38 -50 -57.5142 
-40 -50 -57.1951 -42 -50 -56.8906 -43.708 -50 -56 
-44 -50.7678 -56 -6 -48.6235 -56 -6.6785 -48 -56 
-42 -48 -57.5792 -44 -49.4762 -56 -44 -48 -56.5704 
-44.6801 -48 -56 -8 -46.7091 -56 -8.55635 -46 -56 
-44 -46 -57.4814 -45.3695 -46 -56 -9.40028 -44 -56 
-26 -44 -57.6606 -28 -44 -57.4003 -30 -44 -57.2942 
-32 -44 -57.4003 -38 -44 -57 -38.059 -44 -56 
-40 -44.3631 -56 -42 -44 -57.6362 -41 -44 -56 
-44 -44 -56.2413 -44.2332 -44 -56 -10 -43.1733 -56 
-11.0366 -42 -56 -18 -42 -57.8527 -20 -42 -57.4437 
-22 -42 -57.4003 -24 -42 -57.2942 -26 -42 -57.0859 
-28 -42 -57 -30 -42 -57 -32 -42 -57.0859 
-34 -42 -57.1844 -36 -42 -56.3124 -36.2389 -42 -56 
-38 -43.9859 -56 -42 -43.6606 -56 -44 -43.8527 -56 
-12 -41.1079 -56 -14 -40 -56.3124 -13.6876 -40 -56 
-16 -40 -56.7091 -18 -40 -56.4869 -20 -40 -56.3984 
-22 -40 -56.3984 -24 -40 -56.3984 -26 -40 -56.4516 
-28 -40 -56.5563 -30 -40 -56.5997 -32 -40 -56.5563 
-33.9654 -40 -56 -34 -40.0164 -56 -36 -41.7317 -56 
-14 -39.795 -56 -16 -39.4436 -56 -18 -39.5484 -56 
-20 -39.6016 -56 -22 -39.6016 -56 -24 -39.5874 -56 
-26 -39.4504 -56 -28 -39.0527 -56 -30 -38.4653 -56 
-32 -38.8176 -56 -20 -78 -54.6235 -20 -78.6785 -54 
-18.668 -78 -54 -22 -78 -55 -22 -79 -54 
-24 -78 -54.7298 -24 -78.7298 -54 -25.8031 -78 -54 
-14 -76 -54.3394 -14 -76.5671 -54 -13.2341 -76 -54 
-16 -76 -54.5997 -16 -77 -54 -18 -76 -55 
-18 -77.5695 -54 -26 -77.9226 -54 -28 -77.6016 -54 
-30 -77.4608 -54 -32 -76 -54.8692 -32 -76.8487 -54 
-33.34 -76 -54 -12 -74 -54.3394 -12 -74.7659 -54 
-11.4932 -74 -54 -14 -74 -55 -16 -74 -55.2942 
-18 -74 -55.795 -34 -74 -55.3765 -34 -75.5611 -54 
-36 -74 -54.6235 -36 -74.7071 -54 -37.2341 -74 -54 
-12 -72 -54.7058 -10.6759 -72 -54 -14 -72 -55.2942 
[...]
POINT_DATA 24582
SCALARS scalars unsigned_short
LOOKUP_TABLE default
401 401 401 401 401 401 401 401 401 
401 401 401 401 401 401 401 401 401 
401 401 401 401 401 401 401 401 401 
401 401 401 401 401 401 401 401 401 
401 401 401 401 401 401 401 401 401 
401 401 401 401 401 401 401 401 401 
401 401 401 401 401 401 401 401 401 
401 401 401 401 401 401 401 401 401 
401 401 401 401 401 401 401 401 401 
401 401 401 401 401 401 401 401 401 
401 401 401 401 401 401 401 401 401 
401 401 401 401 401 401 401 401 401 
401 401 401 401 401 401 401 401 401 
401 401 401 401 401 401 401 401 401 
401 401 401 401 401 401 401 401 401 
401 401 401 401 401 401 401 401 401 
401 401 401 401 401 401 401 401 401 
401 401 401 401 401 401 401 401 401 
401 401 401 401 401 401 401 401 401 
401 401 401 401 401 401 401 401 401 
401 401 401 401 401 401 401 401 401 
401 401 401 401 401 401 401 401 401 
401 401 401 401 401 401 401 401 401 
401 401 401 401 401 401 401 401 401 
401 401 401 401 401 401 401 401 401 
401 401 401 401 401 401 401 401 401 
401 401 401 401 401 401 401 401 401 
401 401 401 401 401 401 401 401 401 
401 401 401 401 401 401 401 401 401 
401 401 401 401 401 401 401 401 401 
401 401 401 401 401 401 401 401 401 
401 401 401 401 401 401 401 401 401 
401 401 401 401 401 401 401 401 401 
401 401 401 401 401 401 401 401 401 
401 401 401 401 401 401 401 401 401 
401 401 401 401 401 401 401 401 401 
401 401 401 401 401 401 401 401 401 
401 401 401 401 401 401 401 401 401 
401 401 401 401 401 401 401 401 401 
401 401 401 401 401 401 401 401 401 
401 401 401 401 401 401 401 401 401 
401 401 401 401 401 401 401 401 401 
401 401 401 401 401 401 401 401 401 
401 401 401 401 401 401 401 401 401 
401 401 401 401 401 401 401 401 401 
401 401 401 401 401 401 401 401 401 
401 401 401 401 401 401 401 401 401 
401 401 401 401 401 401 401 401 401 
401 401 401 401 401 401 401 401 401 
401 401 401 401 401 401 401 401 401 
401 401 401 401 401 401 401 401 401 
401 401 401 401 401 401 401 401 401 
401 401 401 401 401 401 401 401 401 
401 401 401 401 401 401 401 401 401 
401 401 401 401 401 401 401 401 401 
401 401 401 401 401 401 401 401 401 
401 401 401 401 401 401 401 401 401 
401 401 401 401 401 401 401 401 401 
401 401 401 401 401 401 401 401 401 
401 401 401 401 401 401 401 401 401 
401 401 401 401 401 401 401 401 401 
401 401 401 401 401 401 401 401 401 
401 401 401 401 401 401 401 401 401 
401 401 401 401 401 401 401 401 401 
401 401 401 401 401 401 401 401 401 
401 401 401 401 401 401 401 401 401 
401 401 401 401 401 401 401 401 401 
401 401 401 401 401 401 401 401 401 
401 401 401 401 401 401 401 401 401 
401 401 401 401 401 401 401 401 401 
401 401 401 401 401 401 401 401 401 
401 401 401 401 401 401 401 401 401 
401 401 401 401 401 401 401 401 401 
401 401 401 401 401 401 401 401 401 
401 401 401 401 401 401 401 401 401 
401 401 401 401 401 401 401 401 401 
401 401 401 401 401 401 401 401 401 
401 401 401 401 401 401 401 401 401 
401 401 401 401 401 401 401 401 401 
401 401 401 401 401 401 401 401 401 
401 401 401 401 401 401 401 401 401 
401 401 401 401 401 401 401 401 401 
401 401 401 401 401 401 401 401 401 
401 401 401 401 401 401 401 401 401 
401 401 401 401 401 401 401 401 401 
401 401 401 401 401 401 401 401 401 
401 401 401 401 401 401 401 401 401 
401 401 401 401 401 401 401 401 401 
401 401 401 401 401 401 401 401 401 
401 401 401 401 401 401 401 401 401 
401 401 401 401 401 401 401 401 401 
401 401 401 401 401 401 401 401 401 
401 401 401 401 401 401 401 401 401 
401 401 401 401 401 401 401 401 401 
401 401 401 401 401 401 401 401 401 
401 401 401 401 401 401 401 401 401 
401 401 401 401 401 401 401 401 401 
401 401 401 401 401 401 401 401 401 
401 401 401 401 401 401 401 401 401 
401 401 401 401 401 401 401 401 401 
401 401 401 401 401 401 401 401 401 
401 401 401 401 401 401 401 401 401 
401 401 401 401 401 401 401 401 401 
401 401 401 401 401 401 401 401 401 
401 401 401 401 401 401 401 401 401 
401 401 401 401 401 401 401 401 401 
401 401 401 401 401 401 401 401 401 
401 401 401 401 401 401 401 401 401 
401 401 401 401 401 401 401 401 401 
401 401 401 401 401 401 401 401 401 
401 401 401 401 401 401 401 401 401 
401 401 401 401 401 401 401 401 401 
401 401 401 401 401 401 401 401 401 
401 401 401 401 401 401 401 401 401 
401 401 401 401 401 401 401 401 401 
401 401 401 401 401 401 401 401 401 
401 401 401 401 401 401 401 401 401 
401 401 401 401 401 401 401 401 401 
401 401 401 401 401 401 401 401 401 
401 401 401 401 401 401 401 401 401 
401 401 401 401 401 401 401 401 401 
401 401 401 401 401 401 401 401 401 
401 401 401 401 401 401 401 401 401 
401 401 401 401 401 401 401 401 401 
401 401 401 401 401 401 401 401 401 
401 401 401 401 401 401 401 401 401 
401 401 401 401 401 401 401 401 401 
401 401 401 401 401 401 401 401 401 
401 401 401 401 401 401 401 401 401 
401 401 401 401 401 401 401 401 401 
401 401 401 401 401 401 401 401 401 
401 401 401 401 401 401 401 401 401 
401 401 401 401 401 401 401 401 401 
401 401 401 401 401 401 401 401 401 
401 401 401 401 401 401 401 401 401 
401 401 401 401 401 401 401 401 401 
401 401 401 401 401 401 401 401 401 
401 401 401 401 401 401 401 401 401 
401 401 401 401 401 401 401 401 401 
401 401 401 401 401 401 401 401 401 
401 401 401 401 401 401 401 401 401 
401 401 401 401 401 401 401 401 401 
401 401 401 401 401 401 401 401 401 
401 401 401 401 401 401 401 401 401 
401 401 401 401 401 401 401 401 401 
401 401 401 401 401 401 401 401 401 
401 401 401 401 401 401 401 401 401 
401 401 401 401 401 401 401 401 401 
401 401 401 401 401 401 401 401 401 
401 401 401 401 401 401 401 401 401 
401 401 401 401 401 401 401 401 401 
401 401 401 401 401 401 401 401 401 
401 401 401 401 401 401 401 401 401 
401 401 401 401 401 401 401 401 401 
401 401 401 401 401 401 401 401 401 
401 401 401 401 401 401 401 401 401 
401 401 401 401 401 401 401 401 401 
401 401 401 401 401 401 401 401 401 
401 401 401 401 401 401 401 401 401 
401 401 401 401 401 401 401 401 401 
401 401 401 401 401 401 401 401 401 
401 401 401 401 401 401 401 401 401 
401 401 401 401 401 401 401 401 401 
401 401 401 401 401 401 401 401 401 
401 401 401 401 401 401 401 401 401 
401 401 401 401 401 401 401 401 401 
401 401 401 401 401 401 401 401 401 
401 401 401 401 401 401 401 401 401 
401 401 401 401 401 401 401 401 401 
401 401 401 401 401 401 401 401 401 
401 401 401 401 401 401 401 401 401 
401 401 401 401 401 401 401 401 401 
401 401 401 401 401 401 401 401 401 
401 401 401 401 401 401 401 401 401 
401 401 401 401 401 401 401 401 401 
401 401 401 401 401 401 401 401 401 
401 401 401 401 401 401 401 401 401 
401 401 401 401 401 401 401 401 401 
401 401 401 401 401 401 401 401 401 
401 401 401 401 401 401 401 401 401 
401 401 401 401 401 401 401 401 401 
401 401 401 401 401 401 401 401 401 
401 401 401 401 401 401 401 401 401 
401 401 401 401 401 401 401 401 401 
401 401 401 401 401 401 401 401 401 
401 401 401 401 401 401 401 401 401 
401 401 401 401 401 401 401 401 401 
401 401 401 401 401 401 401 401 401 
401 401 401 401 401 401 401 401 401 
401 401 401 401 401 401 401 401 401 
401 401 401 401 401 401 401 401 401 
401 401 401 401 401 401 401 401 401 
401 401 401 401 401 401 401 401 401 
401 401 401 401 401 401 401 401 401 
401 401 401 401 401 401 401 401 401 
401 401 401 401 401 401 401 401 401 
401 401 401 401 401 401 401 401 401 
401 401 401 401 401 401 401 401 401 
401 401 401 401 401 401 401 401 401 
401 401 401 401 401 401 401 401 401 
401 401 401 401 401 401 401 401 401 
401 401 401 401 401 401 401 401 401 
401 401 401 401 401 401 401 401 401 
401 401 401 401 401 401 401 401 401 
401 401 401 401 401 401 401 401 401 
401 401 401 401 401 401 401 401 401 
401 401 401 401 401 401 401 401 401 
401 401 401 401 401 401 401 401 401 
401 401 401 401 401 401 401 401 401 
401 401 401 401 401 401 401 401 401 
401 401 401 401 401 401 401 401 401 
401 401 401 401 401 401 401 401 401 
401 401 401 401 401 401 401 401 401 
401 401 401 401 401 401 401 401 401 
401 401 401 401 401 401 401 401 401 
401 401 401 401 401 401 401 401 401 
401 401 401 401 401 401 401 401 401 
401 401 401 401 401 401 401 401 401 
401 401 401 401 401 401 401 401 401 
401 401 401 401 401 401 401 401 401 
401 401 401 401 401 401 401 401 401 
401 401 401 401 401 401 401 401 401 
401 401 401 401 401 401 401 401 401 
401 401 401 401 401 401 401 401 401 
401 401 401 401 401 401 401 401 401 
401 401 401 401 401 401 401 401 401 
401 401 401 401 401 401 401 401 401 
401 401 401 401 401 401 401 401 401 
401 401 401 401 401 401 401 401 401 
401 401 401 401 401 401 401 401 401 
401 401 401 401 401 401 401 401 401 
401 401 401 401 401 401 401 401 401 
401 401 401 401 401 401 401 401 401 
401 401 401 401 401 401 401 401 401 
401 401 401 401 401 401 401 401 401 
401 401 401 401 401 401 401 401 401 
401 401 401 401 401 401 401 401 401 
401 401 401 401 401 401 401 401 401 
401 401 401 401 401 401 401 401 401 
401 401 401 401 401 401 401 401 401 
401 401 401 401 401 401 401 401 401 
401 401 401 401 401 401 401 401 401 
401 401 401 401 401 401 401 401 401 
401 401 401 401 401 401 401 401 401 
401 401 401 401 401 401 401 401 401 
401 401 401 401 401 401 401 401 401 
401 401 401 401 401 401 401 401 401 
401 401 401 401 401 401 401 401 401 
401 401 401 401 401 401 401 401 401 
401 401 401 401 401 401 401 401 401 
401 401 401 401 401 401 401 401 401 
401 401 401 401 401 401 401 401 401 
401 401 401 401 401 401 401 401 401 
401 401 401 401 401 401 401 401 401 
401 401 401 401 401 401 401 401 401 
401 401 401 401 401 401 401 401 401 
401 401 401 401 401 401 401 401 401 
401 401 401 401 401 401 401 401 401 
401 401 401 401 401 401 401 401 401 
401 401 401 401 401 401 401 401 401 
401 401 401 401 401 401 401 401 401 
401 401 401 401 401 401 401 401 401 
401 401 401 401 401 401 401 401 401 
401 401 401 401 401 401 401 401 401 
401 401 401 401 401 401 401 401 401 
401 401 401 401 401 401 401 401 401 
401 401 401 401 401 401 401 401 401 
401 401 401 401 401 401 401 401 401 
401 401 401 401 401 401 401 401 401 
401 401 401 401 401 401 401 401 401 
401 401 401 401 401 401 401 401 401 
401 401 401 401 401 401 401 401 401 
401 401 401 401 401 401 401 401 401 
401 401 401 401 401 401 401 401 401 
401 401 401 401 401 401 401 401 401 
401 401 401 401 401 401 401 401 401 
401 401 401 401 401 401 401 401 401 
401 401 401 401 401 401 401 401 401 
401 401 401 401 401 401 401 401 401 
401 401 401 401 401 401 401 401 401 
401 401 401 401 401 401 401 401 401 
401 401 401 401 401 401 401 401 401 
401 401 401 401 401 401 401 401 401 
401 401 401 401 401 401 401 401 401 
401 401 401 401 401 401 401 401 401 
401 401 401 401 401 401 401 401 401 
401 401 401 401 401 401 401 401 401 
401 401 401 401 401 401 401 401 401 
401 401 401 401 401 401 401 401 401 
401 401 401 401 401 401 401 401 401 
401 401 401 401 401 401 401 401 401 
401 401 401 401 401 401 401 401 401 
401 401 401 401 401 401 401 401 401 
401 401 401 401 401 401 401 401 401 
401 401 401 401 401 401 401 401 401 
401 401 401 401 401 401 401 401 401 
401 401 401 401 401 401 401 401 401 
401 401 401 401 401 401 401 401 401 
401 401 401 401 401 401 401 401 401 
401 401 401 401 401 401 401 401 401 
401 401 401 401 401 401 401 401 401 
401 401 401 401 401 401 401 401 401 
401 401 401 401 401 401 401 401 401 
401 401 401 401 401 401 401 401 401 
401 401 401 401 401 401 401 401 401 
401 401 401 401 401 401 401 401 401 
401 401 401 401 401 401 401 401 401 
401 401 401 401 401 401 401 401 401 
401 401 401 401 401 401 401 401 401 
401 401 401 401 401 401 401 401 401 
401 401 401 401 401 401 401 401 401 
401 401 401 401 401 401 401 401 401 
401 401 401 401 401 401 401 401 401 
401 401 401 401 401 401 401 401 401 
401 401 401 401 401 401 401 401 401 
401 401 401 401 401 401 401 401 401 
401 401 401 401 401 401 401 401 401 
401 401 401 401 401 401 401 401 401 
401 401 401 401 401 401 401 401 401 
401 401 401 401 401 401 401 401 401 
401 401 401 401 401 401 401 401 401 
401 401 401 401 401 401 401 401 401 
401 401 401 401 401 401 401 401 401 
401 401 401 401 401 401 401 401 401 
401 401 401 401 401 401 401 401 401 
401 401 401 401 401 401 401 401 401 
401 401 401 401 401 401 401 401 401 
401 401 401 401 401 401 401 401 401 
401 401 401 401 401 401 401 401 401 
401 401 401 401 401 401 401 401 401 
401 401 401 401 401 401 401 401 401 
401 401 401 401 401 401 401 401 401 
401 401 401 401 401 401 401 401 401 
401 401 401 401 401 401 401 401 401 
401 401 401 401 401 401 401 401 401 
401 401 401 401 401 401 401 401 401 
401 401 401 401 401 401 401 401 401 
401 401 401 401 401 401 401 401 401 
401 401 401 401 401 401 401 401 401 
401 401 401 401 401 401 401 401 401 
401 401 401 401 401 401 401 401 401 
401 401 401 401 401 401 401 401 401 
401 401 401 401 401 401 401 401 401 
401 401 401 401 401 401 401 401 401 
401 401 401 401 401 401 401 401 401 
401 401 401 401 401 401 401 401 401 
401 401 401 401 401 401 401 401 401 
401 401 401 401 401 401 401 401 401 
401 401 401 401 401 401 401 401 401 
401 401 401 401 401 401 401 401 401 
401 401 401 401 401 401 401 401 401 
401 401 401 401 401 401 401 401 401 
401 401 401 401 401 401 401 401 401 
401 401 401 401 401 401 401 401 401 
401 401 401 401 401 401 401 401 401 
401 401 401 401 401 401 401 401 401 
401 401 401 401 401 401 401 401 401 
401 401 401 401 401 401 401 401 401 
401 401 401 401 401 401 401 401 401 
401 401 401 401 401 401 401 401 401 
401 401 401 401 401 401 401 401 401 
401 401 401 401 401 401 401 401 401 
401 401 401 401 401 401 401 401 401 
401 401 401 401 401 401 401 401 401 
401 401 401 401 401 401 401 401 401 
401 401 401 401 401 401 401 401 401 
401 401 401 401 401 401 401 401 401 
401 401 401 401 401 401 401 401 401 
401 401 401 401 401 401 401 401 401 
401 401 401 401 401 401 401 401 401 
401 401 401 401 401 401 401 401 401 
401 401 401 401 401 401 401 401 401 
401 401 401 401 401 401 401 401 401 
401 401 401 401 401 401 401 401 401 
401 401 401 401 401 401 401 401 401 
401 401 401 401 401 401 401 401 401 
401 401 401 401 401 401 401 401 401 
401 401 401 401 401 401 401 401 401 
401 401 401 401 401 401 401 401 401 
401 401 401 401 401 401 401 401 401 
401 401 401 401 401 401 401 401 401 
401 401 401 401 401 401 401 401 401 
401 401 401 401 401 401 401 401 401 
401 401 401 401 401 401 401 401 401 
401 401 401 401 401 401 401 401 401 
401 401 401 401 401 401 401 401 401 
401 401 401 401 401 401 401 401 401 
401 401 401 401 401 401 401 401 401 
401 401 401 401 401 401 401 401 401 
401 401 401 401 401 401 401 401 401 
401 401 401 401 401 401 401 401 401 
401 401 401 401 401 401 401 401 401 
401 401 401 401 401 401 401 401 401 
401 401 401 401 401 401 401 401 401 
401 401 401 401 401 401 401 401 401 
401 401 401 401 401 401 401 401 401 
401 401 401 401 401 401 401 401 401 
401 401 401 401 401 401 401 401 401 
401 401 401 401 401 401 401 401 401 
401 401 401 401 401 401 401 401 401 
401 401 401 401 401 401 401 401 401 
401 401 401 401 401 401 401 401 401 
401 401 401 401 401 401 401 401 401 
401 401 401 401 401 401 401 401 401 
401 401 401 401 401 401 401 401 401 
401 401 401 401 401 401 401 401 401 
401 401 401 401 401 401 401 401 401 
401 401 401 401 401 401 401 401 401 
401 401 401 401 401 401 401 401 401 
401 401 401 401 401 401 401 401 401 
401 401 401 401 401 401 401 401 401 
401 401 401 401 401 401 401 401 401 
401 401 401 401 401 401 401 401 401 
401 401 401 401 401 401 401 401 401 
401 401 401 401 401 401 401 401 401 
401 401 401 401 401 401 401 401 401 
401 401 401 401 401 401 401 401 401 
401 401 401 401 401 401 401 401 401 
401 401 401 401 401 401 401 401 401 
401 401 401 401 401 401 401 401 401 
401 401 401 401 401 401 401 401 401 
401 401 401 401 401 401 401 401 401 
401 401 401 401 401 401 401 401 401 
401 401 401 401 401 401 401 401 401 
401 401 401 401 401 401 401 401 401 
401 401 401 401 401 401 401 401 401 
401 401 401 401 401 401 401 401 401 
401 401 401 401 401 401 401 401 401 
401 401 401 401 401 401 401 401 401 
401 401 401 401 401 401 401 401 401 
401 401 401 401 401 401 401 401 401 
401 401 401 401 401 401 401 401 401 
401 401 401 401 401 401 401 401 401 
401 401 401 401 401 401 401 401 401 
401 401 401 401 401 401 401 401 401 
401 401 401 401 401 401 401 401 401 
401 401 401 401 401 401 401 401 401 
401 401 401 401 401 401 401 401 401 
401 401 401 401 401 401 401 401 401 
401 401 401 401 401 401 401 401 401 
401 401 401 401 401 401 401 401 401 
401 401 401 401 401 401 401 401 401 
401 401 401 401 401 401 401 401 401 
401 401 401 401 401 401 401 401 401 
401 401 401 401 401 401 401 401 401 
401 401 401 401 401 401 401 401 401 
401 401 401 401 401 401 401 401 401 
401 401 401 401 401 401 401 401 401 
401 401 401 401 401 401 401 401 401 
401 401 401 401 401 401 401 401 401 
401 401 401 401 401 401 401 401 401 
401 401 401 401 401 401 401 401 401 
401 401 401 401 401 401 401 401 401 
401 401 401 401 401 401 401 401 401 
401 401 401 401 401 401 401 401 401 
401 401 401 401 401 401 401 401 401 
401 401 401 401 401 401 401 401 401 
401 401 401 401 401 401 401 401 401 
401 401 401 401 401 401 401 401 401 
401 401 401 401 401 401 401 401 401 
401 401 401 401 401 401 401 401 401 
401 401 401 401 401 401 401 401 401 
401 401 401 401 401 401 401 401 401 
401 401 401 401 401 401 401 401 401 
401 401 401 401 401 401 401 401 401 
401 401 401 401 401 401 401 401 401 
401 401 401 401 401 401 401 401 401 
401 401 401 401 401 401 401 401 401 
401 401 401 401 401 401 401 401 401 
401 401 401 401 401 401 401 401 401 
401 401 401 401 401 401 401 401 401 
401 401 401 401 401 401 401 401 401 
401 401 401 401 401 401 401 401 401 
401 401 401 401 401 401 401 401 401 
401 401 401 401 401 401 401 401 401 
401 401 401 401 401 401 401 401 401 
401 401 401 401 401 401 401 401 401 
401 401 401 401 401 401 401 401 401 
401 401 401 401 401 401 401 401 401 
401 401 401 401 401 401 401 401 401 
401 401 401 401 401 401 401 401 401 
401 401 401 401 401 401 401 401 401 
401 401 401 401 401 401 401 401 401 
401 401 401 401 401 401 401 401 401 
401 401 401 401 401 401 401 401 401 
401 401 401 401 401 401 401 401 401 
401 401 401 401 401 401 401 401 401 
401 401 401 401 401 401 401 401 401 
401 401 401 401 401 401 401 401 401 
401 401 401 401 401 401 401 401 401 
401 401 401 401 401 401 401 401 401 
401 401 401 401 401 401 401 401 401 
401 401 401 401 401 401 401 401 401 
401 401 401 401 401 401 401 401 401 
401 401 401 401 401 401 401 401 401 
401 401 401 401 401 401 401 401 401 
401 401 401 401 401 401 401 401 401 
401 401 401 401 401 401 401 401 401 
401 401 401 401 401 401 401 401 401 
401 401 401 401 401 401 401 401 401 
401 401 401 401 401 401 401 401 401 
401 401 401 401 401 401 401 401 401 
401 401 401 401 401 401 401 401 401 
401 401 401 401 401 401 401 401 401 
401 401 401 401 401 401 401 401 401 
401 401 401 401 401 401 401 401 401 
401 401 401 401 401 401 401 401 401 
401 401 401 401 401 401 401 401 401 
401 401 401 401 401 401 401 401 401 
401 401 401 401 401 401 401 401 401 
401 401 401 401 401 401 401 401 401 
401 401 401 401 401 401 401 401 401 
401 401 401 401 401 401 401 401 401 
401 401 401 401 401 401 401 401 401 
401 401 401 401 401 401 401 401 401 
401 401 401 401 401 401 401 401 401 
401 401 401 401 401 401 401 401 401 
401 401 401 401 401 401 401 401 401 
401 401 401 401 401 401 401 401 401 
401 401 401 401 401 401 401 401 401 
401 401 401 401 401 401 401 401 401 
401 401 401 401 401 401 401 401 401 
401 401 401 401 401 401 401 401 401 
401 401 401 401 401 401 401 401 401 
401 401 401 401 401 401 401 401 401 
401 401 401 401 401 401 401 401 401 
401 401 401 401 401 401 401 401 401 
401 401 401 401 401 401 401 401 401 
401 401 401 401 401 401 401 401 401 
401 401 401 401 401 401 401 401 401 
401 401 401 401 401 401 401 401 401 
401 401 401 401 401 401 401 401 401 
401 401 401 401 401 401 401 401 401 
401 401 401 401 401 401 401 401 401 
401 401 401 401 401 401 401 401 401 
401 401 401 401 401 401 401 401 401 
401 401 401 401 401 401 401 401 401 
401 401 401 401 401 401 401 401 401 